<?xml version="1.0"?>
<VTKFile type="PolyData" version="1.0" byte_order="LittleEndian" header_type="UInt64">
  <PolyData>
    <Piece NumberOfPoints="17400" NumberOfVerts="0" NumberOfLines="0" NumberOfStrips="0" NumberOfPolys="34270">
      <PointData>
      </PointData>
      <CellData>
        <DataArray type="Float32" Name="Re[EM_E(x,y,z,f0)]" NumberOfComponents="3" format="ascii" RangeMin="0" RangeMax="65.605934311">
          0.19139550626 -0.20829847455 -0.015603690408 0.19139550626 -0.20829847455 -0.015603690408
          0.21787780523 -0.030886013061 -0.16974598169 0.21787780523 -0.030886013061 -0.16974598169
          0.23535375297 0.13841862977 -0.31064257026 0.23535375297 0.13841862977 -0.31064257026
          0.24577280879 0.29003816843 -0.43400523067 0.24577280879 0.29003816843 -0.43400523067
          0.25109151006 0.42086946964 -0.53932750225 0.25109151006 0.42086946964 -0.53932750225
          0.2529874146 0.53129553795 -0.62797212601 0.2529874146 0.53129553795 -0.62797212601
          0.25271293521 0.62331283092 -0.70198553801 0.25271293521 0.62331283092 -0.70198553801
          0.25116848946 0.69946682453 -0.76354163885 0.25116848946 0.69946682453 -0.76354163885
          0.24895992875 0.76230663061 -0.81466853619 0.24895992875 0.76230663061 -0.81466853619
          0.24647518992 0.81414651871 -0.85714930296 0.24647518992 0.81414651871 -0.85714930296
          0.24395798147 0.8569726944 -0.8925011158 0.24395798147 0.8569726944 -0.8925011158
          0.24154193699 0.89243859053 -0.92199110985 0.24154193699 0.89243859053 -0.92199110985
          0.23911088705 0.92432874441 -0.94870263338 0.23911088705 0.92432874441 -0.94870263338
          0.23647384346 0.95565903187 -0.97513765097 0.23647384346 0.95565903187 -0.97513765097
          0.23363816738 0.98639404774 -1.0012807846 0.23363816738 0.98639404774 -1.0012807846
          0.23061814904 1.0165077448 -1.0271105766 0.23061814904 1.0165077448 -1.0271105766
          0.2274222672 1.0459711552 -1.0526151657 0.2274222672 1.0459711552 -1.0526151657
          0.22406820953 1.0747555494 -1.077780962 0.22406820953 1.0747555494 -1.077780962
          0.22056499124 1.1028432846 -1.1025900841 0.22056499124 1.1028432846 -1.1025900841
          0.21693043411 1.1302194595 -1.1270301342 0.21693043411 1.1302194595 -1.1270301342
          0.21317909658 1.1568675041 -1.151088953 0.21317909658 1.1568675041 -1.151088953
          0.20933033526 1.1827778816 -1.1747546196 0.20933033526 1.1827778816 -1.1747546196
          0.2053925395 1.2079432011 -1.1980106831 0.2053925395 1.2079432011 -1.1980106831
          0.20138388872 1.2323585749 -1.2208490372 0.20138388872 1.2323585749 -1.2208490372
          0.19732072949 1.2560303211 -1.2432605028 0.19732072949 1.2560303211 -1.2432605028
          0.19321502745 1.2789623737 -1.2652316093 0.19321502745 1.2789623737 -1.2652316093
          0.18908423185 1.301164031 -1.2867548466 0.18908423185 1.301164031 -1.2867548466
          0.18493808806 1.3226532936 -1.307823658 0.18493808806 1.3226532936 -1.307823658
          0.18079009652 1.3434455395 -1.3284339905 0.18079009652 1.3434455395 -1.3284339905
          0.17664709687 1.3635647297 -1.3485732079 0.17664709687 1.3635647297 -1.3485732079
          0.17252056301 1.3830373287 -1.3682335615 0.17252056301 1.3830373287 -1.3682335615
          0.16840703785 1.4018917084 -1.3874130249 0.16840703785 1.4018917084 -1.3874130249
          0.16431201994 1.4201638699 -1.4061026573 0.16431201994 1.4201638699 -1.4061026573
          0.16023343801 1.4378906488 -1.4243000746 0.16023343801 1.4378906488 -1.4243000746
          0.15616860986 1.4551107883 -1.4420042038 0.15616860986 1.4551107883 -1.4420042038
          0.15210011601 1.4718630314 -1.4592108727 0.15210011601 1.4718630314 -1.4592108727
          0.14801454544 1.4881899357 -1.475913763 0.14801454544 1.4881899357 -1.475913763
          0.14390057325 1.5041345358 -1.4921138287 0.14390057325 1.5041345358 -1.4921138287
          0.13972710073 1.5197349787 -1.5078095198 0.13972710073 1.5197349787 -1.5078095198
          0.13547228277 1.5350319147 -1.5230035782 0.13547228277 1.5350319147 -1.5230035782
          0.13110548258 1.550063014 -1.5376948118 0.13110548258 1.550063014 -1.5376948118
          0.12658512592 1.5648633242 -1.5518842936 0.12658512592 1.5648633242 -1.5518842936
          0.12188167125 1.5794658661 -1.5655782223 0.12188167125 1.5794658661 -1.5655782223
          0.11694374681 1.5938936472 -1.5787793398 0.11694374681 1.5938936472 -1.5787793398
          0.11173836887 1.6081652641 -1.5914899111 0.11173836887 1.6081652641 -1.5914899111
          0.10621447861 1.6222937107 -1.6037156582 0.10621447861 1.6222937107 -1.6037156582
          0.10033304989 1.6362811327 -1.6154645681 0.10033304989 1.6362811327 -1.6154645681
          0.09404745698 1.6501300335 -1.6267373562 0.09404745698 1.6501300335 -1.6267373562
          0.087322473526 1.663828969 -1.6375389099 0.087322473526 1.663828969 -1.6375389099
          0.080118015409 1.677355051 -1.6478784084 0.080118015409 1.677355051 -1.6478784084
          0.072401493788 1.6906840801 -1.6577540636 0.072401493788 1.6906840801 -1.6577540636
          0.064153462648 1.7037833929 -1.6671712399 0.064153462648 1.7037833929 -1.6671712399
          0.055521547794 1.7163453102 -1.6759594679 0.055521547794 1.7163453102 -1.6759594679
          0.047243069857 1.7274394035 -1.6835380793 0.047243069857 1.7274394035 -1.6835380793
          0.03987853229 1.7366118431 -1.6896822453 0.03987853229 1.7366118431 -1.6896822453
          0.033431068063 1.7441511154 -1.694652915 0.033431068063 1.7441511154 -1.694652915
          0.027852337807 1.7503354549 -1.6986848116 0.027852337807 1.7503354549 -1.6986848116
          0.023007564247 1.7554539442 -1.7019970417 0.023007564247 1.7554539442 -1.7019970417
          0.018813008443 1.7597177029 -1.7047313452 0.018813008443 1.7597177029 -1.7047313452
          0.015180999413 1.7632846832 -1.7070059776 0.015180999413 1.7632846832 -1.7070059776
          0.012037292123 1.7662795782 -1.7089146376 0.012037292123 1.7662795782 -1.7089146376
          0.0093061449006 1.7688119411 -1.710521698 0.0093061449006 1.7688119411 -1.710521698
          0.0069306744263 1.7709691525 -1.7118808031 0.0069306744263 1.7709691525 -1.7118808031
          0.0048948680051 1.772782445 -1.7130246162 0.0048948680051 1.772782445 -1.7130246162
          0.0031615216285 1.7742989063 -1.7139831781 0.0031615216285 1.7742989063 -1.7139831781
          0.0016514913877 1.7755967379 -1.7148019075 0.0016514913877 1.7755967379 -1.7148019075
          0.00033128331415 1.7767202854 -1.7155060768 0.00033128331415 1.7767202854 -1.7155060768
          -0.00090268533677 1.7777626514 -1.7161551714 -0.00090268533677 1.7777626514 -1.7161551714
          -0.002234057989 1.7788698673 -1.7168493271 -0.002234057989 1.7788698673 -1.7168493271
          -0.0037719162647 1.7801322937 -1.7176405191 -0.0037719162647 1.7801322937 -1.7176405191
          -0.0055598728359 1.7815792561 -1.7185471058 -0.0055598728359 1.7815792561 -1.7185471058
          -0.0076842457056 1.7832665443 -1.7196061611 -0.0076842457056 1.7832665443 -1.7196061611
          -0.010240485892 1.7852525711 -1.7208462954 -0.010240485892 1.7852525711 -1.7208462954
          -0.01330747921 1.7875761986 -1.7222936153 -0.01330747921 1.7875761986 -1.7222936153
          -0.016993179917 1.7902826071 -1.7239823341 -0.016993179917 1.7902826071 -1.7239823341
          -0.021441090852 1.7934217453 -1.7259435654 -0.021441090852 1.7934217453 -1.7259435654
          -0.026820737869 1.7970439196 -1.7281996012 -0.026820737869 1.7970439196 -1.7281996012
          -0.033337429166 1.8011808395 -1.7307779789 -0.033337429166 1.8011808395 -1.7307779789
          -0.04125123471 1.8058400154 -1.7336982489 -0.04125123471 1.8058400154 -1.7336982489
          -0.050874702632 1.8109816313 -1.7369462252 -0.050874702632 1.8109816313 -1.7369462252
          -0.062594391406 1.8164852858 -1.7404714823 -0.062594391406 1.8164852858 -1.7404714823
          -0.075975172222 1.8218102455 -1.7439677715 -0.075975172222 1.8218102455 -1.7439677715
          -0.089923322201 1.826271534 -1.7470302582 -0.089923322201 1.826271534 -1.7470302582
          -0.10396274924 1.8296231031 -1.7495082617 -0.10396274924 1.8296231031 -1.7495082617
          -0.11801323295 1.831817627 -1.7513813972 -0.11801323295 1.831817627 -1.7513813972
          -0.13199479878 1.8328123093 -1.7526265383 -0.13199479878 1.8328123093 -1.7526265383
          -0.14582973719 1.8325711489 -1.7532140017 -0.14582973719 1.8325711489 -1.7532140017
          -0.15944094956 1.831069231 -1.7531193495 -0.15944094956 1.831069231 -1.7531193495
          -0.17274682224 1.8282916546 -1.7523138523 -0.17274682224 1.8282916546 -1.7523138523
          -0.18599410355 1.8240959644 -1.7507154942 -0.18599410355 1.8240959644 -1.7507154942
          -0.19906060398 1.8184148073 -1.7482578754 -0.19906060398 1.8184148073 -1.7482578754
          -0.21156410873 1.8113245964 -1.7449287176 -0.21156410873 1.8113245964 -1.7449287176
          -0.22345623374 1.8028417826 -1.7407016754 -0.22345623374 1.8028417826 -1.7407016754
          -0.23467350006 1.7929881811 -1.7355513573 -0.23467350006 1.7929881811 -1.7355513573
          -0.24518412352 1.7817960978 -1.7294515371 -0.24518412352 1.7817960978 -1.7294515371
          -0.25495934486 1.7692959309 -1.7223825455 -0.25495934486 1.7692959309 -1.7223825455
          -0.26398009062 1.755525589 -1.7143278122 -0.26398009062 1.755525589 -1.7143278122
          -0.27223873138 1.7405273914 -1.7052630186 -0.27223873138 1.7405273914 -1.7052630186
          -0.27974158525 1.724334836 -1.695179224 -0.27974158525 1.724334836 -1.695179224
          -0.28649708629 1.7069836855 -1.6840667725 -0.28649708629 1.7069836855 -1.6840667725
          -0.29252153635 1.6885141134 -1.6719177961 -0.29252153635 1.6885141134 -1.6719177961
          -0.29784780741 1.6689616442 -1.6587321758 -0.29784780741 1.6689616442 -1.6587321758
          -0.30249717832 1.6483547688 -1.64450109 -0.30249717832 1.6483547688 -1.64450109
          -0.30650773644 1.6267229319 -1.6292268038 -0.30650773644 1.6267229319 -1.6292268038
          -0.30990481377 1.6040968895 -1.6129153967 -0.30990481377 1.6040968895 -1.6129153967
          -0.31273460388 1.5804985762 -1.5955752134 -0.31273460388 1.5804985762 -1.5955752134
          -0.3150280714 1.5559515953 -1.5772147179 -0.3150280714 1.5559515953 -1.5772147179
          -0.31682130694 1.5304746628 -1.557839036 -0.31682130694 1.5304746628 -1.557839036
          -0.31814745069 1.5040845871 -1.5374639034 -0.31814745069 1.5040845871 -1.5374639034
          -0.31903985143 1.4768021107 -1.5161044598 -0.31903985143 1.4768021107 -1.5161044598
          -0.31953293085 1.4486384392 -1.4937698841 -0.31953293085 1.4486384392 -1.4937698841
          -0.31964799762 1.4196090698 -1.4704864025 -0.31964799762 1.4196090698 -1.4704864025
          -0.31942087412 1.3897334337 -1.4462757111 -0.31942087412 1.3897334337 -1.4462757111
          -0.31887096167 1.3590265512 -1.421153307 -0.31887096167 1.3590265512 -1.421153307
          -0.31802204251 1.3275040388 -1.3951479197 -0.31802204251 1.3275040388 -1.3951479197
          -0.31689187884 1.2951843739 -1.3682787418 -0.31689187884 1.2951843739 -1.3682787418
          -0.31549724936 1.2620919943 -1.3405715227 -0.31549724936 1.2620919943 -1.3405715227
          -0.31385099888 1.2282421589 -1.3120555878 -0.31385099888 1.2282421589 -1.3120555878
          -0.31196883321 1.1936583519 -1.2827575207 -0.31196883321 1.1936583519 -1.2827575207
          -0.30985611677 1.1583726406 -1.2527061701 -0.30985611677 1.1583726406 -1.2527061701
          -0.307533741 1.1224088669 -1.2219309807 -0.307533741 1.1224088669 -1.2219309807
          -0.30500048399 1.0857955217 -1.1904646158 -0.30500048399 1.0857955217 -1.1904646158
          -0.30227169394 1.0485674143 -1.158338666 -0.30227169394 1.0485674143 -1.158338666
          -0.29934436083 1.0107598305 -1.1255854368 -0.29934436083 1.0107598305 -1.1255854368
          -0.29623132944 0.97240716219 -1.0922393799 -0.29623132944 0.97240716219 -1.0922393799
          -0.29293364286 0.9335501194 -1.0583319664 -0.29293364286 0.9335501194 -1.0583319664
          -0.28945752978 0.89422982931 -1.0239007473 -0.28945752978 0.89422982931 -1.0239007473
          -0.28580701351 0.8544870019 -0.98898780346 -0.28580701351 0.8544870019 -0.98898780346
          -0.28198370337 0.81436669827 -0.95362538099 -0.28198370337 0.81436669827 -0.95362538099
          -0.27799600363 0.77391648293 -0.91785418987 -0.27799600363 0.77391648293 -0.91785418987
          -0.27384269238 0.73318946362 -0.88171505928 -0.27384269238 0.73318946362 -0.88171505928
          -0.26953303814 0.69222843647 -0.84524333477 -0.26953303814 0.69222843647 -0.84524333477
          -0.26506826282 0.6510848999 -0.80848395824 -0.26506826282 0.6510848999 -0.80848395824
          -0.26045358181 0.60981714725 -0.77147674561 -0.26045358181 0.60981714725 -0.77147674561
          -0.25569602847 0.56847417355 -0.7342621088 -0.25569602847 0.56847417355 -0.7342621088
          -0.25079900026 0.52711033821 -0.69688379765 -0.25079900026 0.52711033821 -0.69688379765
          -0.24576936662 0.48578006029 -0.65938413143 -0.24576936662 0.48578006029 -0.65938413143
          -0.24061277509 0.44453662634 -0.62180697918 -0.24061277509 0.44453662634 -0.62180697918
          -0.23491464555 0.4001698494 -0.58119243383 -0.23491464555 0.4001698494 -0.58119243383
          -0.22812953591 0.34889635444 -0.5339987874 -0.22812953591 0.34889635444 -0.5339987874
          -0.22000217438 0.28957694769 -0.47902658582 -0.22000217438 0.28957694769 -0.47902658582
          -0.21023193002 0.22101098299 -0.41494977474 -0.21023193002 0.22101098299 -0.41494977474
          -0.19845955074 0.14204615355 -0.34036779404 -0.19845955074 0.14204615355 -0.34036779404
          -0.18428304791 0.05179342255 -0.25394156575 -0.18428304791 0.05179342255 -0.25394156575
          -0.16728770733 -0.050019171089 -0.15465763211 -0.16728770733 -0.050019171089 -0.15465763211
          -0.14709061384 -0.16243359447 -0.042283296585 -0.14709061384 -0.16243359447 -0.042283296585
          -0.12349658459 -0.28228738904 0.081809014082 -0.12349658459 -0.28228738904 0.081809014082
          -0.096702113748 -0.40276512504 0.21330857277 -0.096702113748 -0.40276512504 0.21330857277
          -0.067586027086 -0.51144945621 0.34315055609 -0.067586027086 -0.51144945621 0.34315055609
          0.17495936155 -0.17563736439 -0.052627582103 0.17495936155 -0.17563736439 -0.052627582103
          0.2045109421 0.012795390561 -0.20997980237 0.2045109421 0.012795390561 -0.20997980237
          0.22560015321 0.19164004922 -0.35178980231 0.22560015321 0.19164004922 -0.35178980231
          0.23965135217 0.35121661425 -0.47454407811 0.23965135217 0.35121661425 -0.47454407811
          0.24832449853 0.48849073052 -0.57836133242 0.24832449853 0.48849073052 -0.57836133242
          0.25316059589 0.60400509834 -0.66505604982 0.25316059589 0.60400509834 -0.66505604982
          0.25539603829 0.69996476173 -0.73697221279 0.25539603829 0.69996476173 -0.73697221279
          0.25596168637 0.77912467718 -0.79646074772 0.25596168637 0.77912467718 -0.79646074772
          0.25551468134 0.84422802925 -0.84565043449 0.25551468134 0.84422802925 -0.84565043449
          0.25449931622 0.89775645733 -0.88637298346 0.25449931622 0.89775645733 -0.88637298346
          0.25320649147 0.94183349609 -0.92015862465 0.25320649147 0.94183349609 -0.92015862465
          0.25181803107 0.97822737694 -0.94827282429 0.25181803107 0.97822737694 -0.94827282429
          0.25032240152 1.010853529 -0.97368431091 0.25032240152 1.010853529 -0.97368431091
          0.24861694872 1.0428040028 -0.99878233671 0.24861694872 1.0428040028 -0.99878233671
          0.24671280384 1.0740424395 -1.0235574245 0.24671280384 1.0740424395 -1.0235574245
          0.24462306499 1.1045390368 -1.0479890108 0.24462306499 1.1045390368 -1.0479890108
          0.24236229062 1.1342601776 -1.0720649958 0.24236229062 1.1342601776 -1.0720649958
          0.23995104432 1.1631747484 -1.0957804918 0.23995104432 1.1631747484 -1.0957804918
          0.23740297556 1.1912611723 -1.1191203594 0.23740297556 1.1912611723 -1.1191203594
          0.23474147916 1.218501687 -1.1420741081 0.23474147916 1.218501687 -1.1420741081
          0.23198598623 1.244879961 -1.1646337509 0.23198598623 1.244879961 -1.1646337509
          0.22915790975 1.2703868151 -1.1867880821 0.22915790975 1.2703868151 -1.1867880821
          0.22627747059 1.2950208187 -1.2085236311 0.22627747059 1.2950208187 -1.2085236311
          0.22337190807 1.3187847137 -1.2298367023 0.22337190807 1.3187847137 -1.2298367023
          0.22045947611 1.3416873217 -1.2507207394 0.22045947611 1.3416873217 -1.2507207394
          0.21756030619 1.3637411594 -1.2711623907 0.21756030619 1.3637411594 -1.2711623907
          0.2147052139 1.3849699497 -1.2911605835 0.2147052139 1.3849699497 -1.2911605835
          0.21190170944 1.4054063559 -1.3107085228 0.21190170944 1.4054063559 -1.3107085228
          0.2091769278 1.4250860214 -1.3297997713 0.2091769278 1.4250860214 -1.3297997713
          0.20653814077 1.4440506697 -1.3484271765 0.20653814077 1.4440506697 -1.3484271765
          0.20400194824 1.4623510838 -1.3665822744 0.20400194824 1.4623510838 -1.3665822744
          0.20156678557 1.4800467491 -1.3842616081 0.20156678557 1.4800467491 -1.3842616081
          0.19924017787 1.4972023964 -1.4014599323 0.19924017787 1.4972023964 -1.4014599323
          0.19701136649 1.5138828754 -1.4181716442 0.19701136649 1.5138828754 -1.4181716442
          0.19486920536 1.5301634073 -1.4343957901 0.19486920536 1.5301634073 -1.4343957901
          0.19278991222 1.5461238623 -1.45013237 0.19278991222 1.5461238623 -1.45013237
          0.19074560702 1.5618444681 -1.4653704166 0.19074560702 1.5618444681 -1.4653704166
          0.18869331479 1.5774086714 -1.4801138639 0.18869331479 1.5774086714 -1.4801138639
          0.18658548594 1.5928940773 -1.4943654537 0.18658548594 1.5928940773 -1.4943654537
          0.18436594307 1.608381629 -1.5081199408 0.18436594307 1.608381629 -1.5081199408
          0.18196284771 1.6239472628 -1.5213856697 0.18196284771 1.6239472628 -1.5213856697
          0.17929323018 1.6396574974 -1.534163475 0.17929323018 1.6396574974 -1.534163475
          0.17627692223 1.6555716991 -1.5464622974 0.17627692223 1.6555716991 -1.5464622974
          0.17281620204 1.6717348099 -1.5582938194 0.17281620204 1.6717348099 -1.5582938194
          0.16881234944 1.6881835461 -1.5696669817 0.16881234944 1.6881835461 -1.5696669817
          0.16415765882 1.7049347162 -1.5805959702 0.16415765882 1.7049347162 -1.5805959702
          0.15876094997 1.7219901085 -1.5910927057 0.15876094997 1.7219901085 -1.5910927057
          0.1525131911 1.7393376827 -1.6011760235 0.1525131911 1.7393376827 -1.6011760235
          0.14531821012 1.7569397688 -1.6108646393 0.14531821012 1.7569397688 -1.6108646393
          0.13710014522 1.7747455835 -1.6201798916 0.13710014522 1.7747455835 -1.6201798916
          0.12777748704 1.7926878929 -1.629134655 0.12777748704 1.7926878929 -1.629134655
          0.11730058491 1.8106734753 -1.6377444267 0.11730058491 1.8106734753 -1.6377444267
          0.10586275905 1.8282340765 -1.6458704472 0.10586275905 1.8282340765 -1.6458704472
          0.094492480159 1.8439741135 -1.6529724598 0.094492480159 1.8439741135 -1.6529724598
          0.084115862846 1.8571442366 -1.658810854 0.084115862846 1.8571442366 -1.658810854
          0.074860021472 1.8680641651 -1.6635969877 0.074860021472 1.8680641651 -1.6635969877
          0.066734939814 1.8770793676 -1.667525053 0.066734939814 1.8770793676 -1.667525053
          0.05960419029 1.8845906258 -1.6707909107 0.05960419029 1.8845906258 -1.6707909107
          0.053375728428 1.8908672333 -1.6735191345 0.053375728428 1.8908672333 -1.6735191345
          0.047948949039 1.8961313963 -1.6758130789 0.047948949039 1.8961313963 -1.6758130789
          0.043223492801 1.9005718231 -1.6777502298 0.043223492801 1.9005718231 -1.6777502298
          0.039103638381 1.9043366909 -1.6793931723 0.039103638381 1.9043366909 -1.6793931723
          0.035505462438 1.9075381756 -1.6807960272 0.035505462438 1.9075381756 -1.6807960272
          0.032414425164 1.9102342129 -1.6819803715 0.032414425164 1.9102342129 -1.6819803715
          0.029773984104 1.9125006199 -1.6829768419 0.029773984104 1.9125006199 -1.6829768419
          0.027472194284 1.9144470692 -1.6838358641 0.027472194284 1.9144470692 -1.6838358641
          0.025456625968 1.9161274433 -1.6845810413 0.025456625968 1.9161274433 -1.6845810413
          0.023570083082 1.9176794291 -1.6852693558 0.023570083082 1.9176794291 -1.6852693558
          0.021531321108 1.9193338156 -1.6860049963 0.021531321108 1.9193338156 -1.6860049963
          0.019173730165 1.9212200642 -1.6868433952 0.019173730165 1.9212200642 -1.6868433952
          0.016427991912 1.9233849049 -1.6878070831 0.016427991912 1.9233849049 -1.6878070831
          0.013158136979 1.9259172678 -1.6889448166 0.013158136979 1.9259172678 -1.6889448166
          0.009218367748 1.928904295 -1.6902896166 0.009218367748 1.928904295 -1.6902896166
          0.0044779581949 1.9323951006 -1.6918692589 0.0044779581949 1.9323951006 -1.6918692589
          -0.0012372690253 1.9364676476 -1.6937359571 -0.0012372690253 1.9364676476 -1.6937359571
          -0.008151685819 1.9412008524 -1.6959311962 -0.008151685819 1.9412008524 -1.6959311962
          -0.016538809985 1.946665287 -1.6985015869 -0.016538809985 1.946665287 -1.6985015869
          -0.026733338833 1.9529174566 -1.7015066147 -0.026733338833 1.9529174566 -1.7015066147
          -0.039156276733 1.9599660635 -1.7050019503 -0.039156276733 1.9599660635 -1.7050019503
          -0.054310679436 1.967754364 -1.7090332508 -0.054310679436 1.967754364 -1.7090332508
          -0.072807945311 1.9760947227 -1.7136319876 -0.072807945311 1.9760947227 -1.7136319876
          -0.093956254423 1.9841446877 -1.7184998989 -0.093956254423 1.9841446877 -1.7184998989
          -0.11599054933 1.9908647537 -1.7231526375 -0.11599054933 1.9908647537 -1.7231526375
          -0.13811016083 1.995870471 -1.7273933887 -0.13811016083 1.995870471 -1.7273933887
          -0.16014432907 1.9990885258 -1.7311874628 -0.16014432907 1.9990885258 -1.7311874628
          -0.18191722035 2.0004632473 -1.73449862 -0.18191722035 2.0004632473 -1.73449862
          -0.20325940847 1.9999548197 -1.7372770309 -0.20325940847 1.9999548197 -1.7372770309
          -0.22399884462 1.9975500107 -1.7394808531 -0.22399884462 1.9975500107 -1.7394808531
          -0.24396759272 1.9932510853 -1.7410674095 -0.24396759272 1.9932510853 -1.7410674095
          -0.26348212361 1.9868932962 -1.7419935465 -0.26348212361 1.9868932962 -1.7419935465
          -0.2822869122 1.9784395695 -1.7421742678 -0.2822869122 1.9784395695 -1.7421742678
          -0.29978433251 1.968067646 -1.7415218353 -0.29978433251 1.968067646 -1.7415218353
          -0.31587654352 1.9558722973 -1.7399888039 -0.31587654352 1.9558722973 -1.7399888039
          -0.33047303557 1.9419622421 -1.7375223637 -0.33047303557 1.9419622421 -1.7375223637
          -0.34353584051 1.9264537096 -1.7340841293 -0.34353584051 1.9264537096 -1.7340841293
          -0.35504108667 1.9094688892 -1.7296397686 -0.35504108667 1.9094688892 -1.7296397686
          -0.36499661207 1.8911325932 -1.7241560221 -0.36499661207 1.8911325932 -1.7241560221
          -0.37343788147 1.8715599775 -1.7176045179 -0.37343788147 1.8715599775 -1.7176045179
          -0.38041716814 1.8508553505 -1.7099633217 -0.38041716814 1.8508553505 -1.7099633217
          -0.38601148129 1.8291157484 -1.7012165785 -0.38601148129 1.8291157484 -1.7012165785
          -0.39030316472 1.8064317703 -1.6913518906 -0.39030316472 1.8064317703 -1.6913518906
          -0.39338728786 1.7828761339 -1.6803636551 -0.39338728786 1.7828761339 -1.6803636551
          -0.39536643028 1.7585053444 -1.6682500839 -0.39536643028 1.7585053444 -1.6682500839
          -0.39634120464 1.7333706617 -1.655012846 -0.39634120464 1.7333706617 -1.655012846
          -0.39641356468 1.7075061798 -1.6406545639 -0.39641356468 1.7075061798 -1.6406545639
          -0.39567279816 1.6809345484 -1.625187993 -0.39567279816 1.6809345484 -1.625187993
          -0.39422476292 1.6536746025 -1.6086233854 -0.39422476292 1.6536746025 -1.6086233854
          -0.39215251803 1.6257338524 -1.5909762383 -0.39215251803 1.6257338524 -1.5909762383
          -0.38952893019 1.5971140862 -1.5722643137 -0.38952893019 1.5971140862 -1.5722643137
          -0.38643532991 1.5678143501 -1.5524990559 -0.38643532991 1.5678143501 -1.5524990559
          -0.38293224573 1.537827611 -1.5317027569 -0.38293224573 1.537827611 -1.5317027569
          -0.37907928228 1.5071456432 -1.5099003315 -0.37907928228 1.5071456432 -1.5099003315
          -0.37492591143 1.475764513 -1.4871125221 -0.37492591143 1.475764513 -1.4871125221
          -0.37051796913 1.4436793327 -1.4633603096 -0.37051796913 1.4436793327 -1.4633603096
          -0.36588779092 1.4108816385 -1.4386729002 -0.36588779092 1.4108816385 -1.4386729002
          -0.36107122898 1.3773691654 -1.4130710363 -0.36107122898 1.3773691654 -1.4130710363
          -0.3560860455 1.3431432247 -1.3865811825 -0.3560860455 1.3431432247 -1.3865811825
          -0.35095646977 1.308205843 -1.3592331409 -0.35095646977 1.308205843 -1.3592331409
          -0.34570097923 1.2725636959 -1.3310500383 -0.34570097923 1.2725636959 -1.3310500383
          -0.34033185244 1.2362282276 -1.3020631075 -0.34033185244 1.2362282276 -1.3020631075
          -0.33485457301 1.1992137432 -1.2723048925 -0.33485457301 1.1992137432 -1.2723048925
          -0.32928061485 1.1615395546 -1.2418010235 -0.32928061485 1.1615395546 -1.2418010235
          -0.32361698151 1.1232275963 -1.2105801105 -0.32361698151 1.1232275963 -1.2105801105
          -0.31786200404 1.084302187 -1.1786779165 -0.31786200404 1.084302187 -1.1786779165
          -0.31201946735 1.0447968245 -1.1461242437 -0.31201946735 1.0447968245 -1.1461242437
          -0.30609363317 1.0047476292 -1.1129502058 -0.30609363317 1.0047476292 -1.1129502058
          -0.30008262396 0.96418976784 -1.079192996 -0.30008262396 0.96418976784 -1.079192996
          -0.29398608208 0.92316496372 -1.0448902845 -0.29398608208 0.92316496372 -1.0448902845
          -0.28780430555 0.88171899319 -1.0100752115 -0.28780430555 0.88171899319 -1.0100752115
          -0.2815361619 0.83989536762 -0.97478449345 -0.2815361619 0.83989536762 -0.97478449345
          -0.27518257499 0.79774230719 -0.93906062841 -0.27518257499 0.79774230719 -0.93906062841
          -0.26874670386 0.75531482697 -0.90293908119 -0.26874670386 0.75531482697 -0.90293908119
          -0.26222631335 0.71266686916 -0.86645996571 -0.26222631335 0.71266686916 -0.86645996571
          -0.25562849641 0.66985225677 -0.82966566086 -0.25562849641 0.66985225677 -0.82966566086
          -0.24895000458 0.62692713737 -0.79259502888 -0.24895000458 0.62692713737 -0.79259502888
          -0.24219796062 0.58395022154 -0.75528907776 -0.24219796062 0.58395022154 -0.75528907776
          -0.23537218571 0.54098021984 -0.71779167652 -0.23537218571 0.54098021984 -0.71779167652
          -0.2284809649 0.49807825685 -0.68014752865 -0.2284809649 0.49807825685 -0.68014752865
          -0.22097854316 0.45190480351 -0.6393777132 -0.22097854316 0.45190480351 -0.6393777132
          -0.2121822536 0.39851006866 -0.59189844131 -0.2121822536 0.39851006866 -0.59189844131
          -0.20182326436 0.33669933677 -0.53645586967 -0.20182326436 0.33669933677 -0.53645586967
          -0.18959416449 0.26522168517 -0.4716386199 -0.18959416449 0.26522168517 -0.4716386199
          -0.17516490817 0.1828687638 -0.39592707157 -0.17516490817 0.1828687638 -0.39592707157
          -0.1581761837 0.088702619076 -0.30782324076 -0.1581761837 0.088702619076 -0.30782324076
          -0.1383305341 -0.017569255084 -0.20609721541 -0.1383305341 -0.017569255084 -0.20609721541
          -0.11544782668 -0.13497693837 -0.090230584145 -0.11544782668 -0.13497693837 -0.090230584145
          -0.089648388326 -0.26030391455 0.038759935647 -0.089648388326 -0.26030391455 0.038759935647
          -0.06159357354 -0.38662806153 0.17695493996 -0.06159357354 -0.38662806153 0.17695493996
          -0.032751314342 -0.50137490034 0.31562674046 -0.032751314342 -0.50137490034 0.31562674046
          0.15954789519 -0.15085880458 -0.072928786278 0.15954789519 -0.15085880458 -0.072928786278
          0.1934081763 0.045420505106 -0.22993436456 0.1934081763 0.045420505106 -0.22993436456
          0.21941302717 0.23119986057 -0.36984196305 0.21941302717 0.23119986057 -0.36984196305
          0.23838594556 0.39672234654 -0.4897736609 0.23838594556 0.39672234654 -0.4897736609
          0.25162678957 0.53895205259 -0.59035134315 0.25162678957 0.53895205259 -0.59035134315
          0.26050120592 0.65849345922 -0.67373812199 0.26050120592 0.65849345922 -0.67373812199
          0.26621112227 0.75765126944 -0.74248802662 0.26621112227 0.75765126944 -0.74248802662
          0.26971516013 0.83930379152 -0.79907047749 0.26971516013 0.83930379152 -0.79907047749
          0.27173277736 0.90632033348 -0.84566098452 0.27173277736 0.90632033348 -0.84566098452
          0.27277749777 0.96129882336 -0.88409900665 0.27277749777 0.96129882336 -0.88409900665
          0.27320566773 1.0064653158 -0.91590225697 0.27320566773 1.0064653158 -0.91590225697
          0.27326211333 1.0436677933 -0.94230681658 0.27326211333 1.0436677933 -0.94230681658
          0.2730832696 1.0769348145 -0.96612650156 0.2730832696 1.0769348145 -0.96612650156
          0.27269017696 1.1094288826 -0.98961126804 0.27269017696 1.1094288826 -0.98961126804
          0.27209377289 1.1411039829 -1.0127533674 0.27209377289 1.1411039829 -1.0127533674